REST    32     1            

       2 !NTITLE followed by title
* QUICK RUN OF GO MODEL                                                         
*  DATE:    10/20/ 5     14:12:10      CREATED BY USER: best                    

 !NATOM,NPRIV,NSTEP,NSAVC,NSAVV,JHSTRT,NDEGF,SEED,NSAVL
          47      100000      100000        1000           0           0          95 0.183015015800000E+10           0

 !ENERGIES and STATISTICS
TTTTTTTTTTTTTTTTTTTTTTTTTTTTTTTTTTTTTTTTTTTTTTTTTTTTTTTTTTTT
TTTTTTTTTTTTTTTTTTTTTTTTTTTTTTTTTTTTTTTTTTTTTTTTTTTTTTTTTTTTTTTTTTTTTTTTTTTTTTTT
       0 0.316428640716658E+10 0.316428640716658E+10 0.246661588808618E+03
 0.628870454238740E+02 0.643648479122728E+06 0.416390925819613E+08
 0.219092984065670E+02 0.232827752429939E+06 0.555774525732211E+07
 0.409777470173070E+02 0.410820726692784E+06 0.169419676343825E+08
 0.232110747032708E+03 0.246661588808618E+07 0.623781074782407E+09
 0.870478810481850E+01 0.850206569238896E+05 0.728309758959652E+06
 0.000000000000000E+00 0.000000000000000E+00 0.000000000000000E+00
 0.000000000000000E+00 0.000000000000000E+00 0.000000000000000E+00
 0.000000000000000E+00 0.000000000000000E+00 0.000000000000000E+00
 0.000000000000000E+00 0.000000000000000E+00 0.000000000000000E+00
 0.000000000000000E+00 0.000000000000000E+00 0.000000000000000E+00
 0.629583659571481E+02 0.643963828479607E+06 0.416798070943445E+08
 0.220128601595248E+02 0.233767185387622E+06 0.560145986529220E+07
 0.713205332740979E-01 0.315349356881891E+03 0.140632230531274E+03
 0.000000000000000E+00 0.000000000000000E+00 0.000000000000000E+00
 0.000000000000000E+00 0.000000000000000E+00 0.000000000000000E+00
 0.000000000000000E+00 0.000000000000000E+00 0.000000000000000E+00
 0.000000000000000E+00 0.000000000000000E+00 0.000000000000000E+00
-0.304461498976100E+02-0.140511411810062E+06 0.509312931199072E+08
 0.000000000000000E+00 0.000000000000000E+00 0.000000000000000E+00
 0.456692248464151E+02 0.210767117715092E+06 0.114595409519792E+09
 0.629583659571481E+02 0.643963828479607E+06 0.416798070943445E+08
 0.409777470173070E+02 0.410820726692784E+06 0.169419676343825E+08
 0.214927816903449E+02 0.233764904580819E+06 0.560238615298048E+07
 0.225329386287047E+02 0.233769466194423E+06 0.560260304482985E+07
 0.000000000000000E+00 0.000000000000000E+00 0.000000000000000E+00
 0.000000000000000E+00 0.000000000000000E+00 0.000000000000000E+00
 0.000000000000000E+00 0.000000000000000E+00 0.000000000000000E+00
 0.000000000000000E+00 0.000000000000000E+00 0.000000000000000E+00
 0.000000000000000E+00 0.000000000000000E+00 0.000000000000000E+00
 0.000000000000000E+00 0.000000000000000E+00 0.000000000000000E+00
 0.000000000000000E+00 0.000000000000000E+00 0.000000000000000E+00
 0.000000000000000E+00 0.000000000000000E+00 0.000000000000000E+00
 0.000000000000000E+00 0.000000000000000E+00 0.000000000000000E+00
 0.000000000000000E+00 0.000000000000000E+00 0.000000000000000E+00
 0.000000000000000E+00 0.000000000000000E+00 0.000000000000000E+00
 0.000000000000000E+00 0.000000000000000E+00 0.000000000000000E+00
 0.000000000000000E+00 0.000000000000000E+00 0.000000000000000E+00
 0.000000000000000E+00 0.000000000000000E+00 0.000000000000000E+00
 0.000000000000000E+00 0.000000000000000E+00 0.000000000000000E+00
 0.000000000000000E+00 0.000000000000000E+00 0.000000000000000E+00
 0.000000000000000E+00 0.000000000000000E+00 0.000000000000000E+00
 0.000000000000000E+00 0.000000000000000E+00 0.000000000000000E+00
 0.000000000000000E+00 0.000000000000000E+00 0.000000000000000E+00
 0.000000000000000E+00 0.000000000000000E+00 0.000000000000000E+00
 0.000000000000000E+00 0.000000000000000E+00 0.000000000000000E+00
 0.000000000000000E+00 0.000000000000000E+00 0.000000000000000E+00
 0.000000000000000E+00 0.000000000000000E+00 0.000000000000000E+00
 0.000000000000000E+00 0.000000000000000E+00 0.000000000000000E+00
 0.000000000000000E+00 0.000000000000000E+00 0.000000000000000E+00
 0.000000000000000E+00 0.000000000000000E+00 0.000000000000000E+00
 0.000000000000000E+00 0.000000000000000E+00 0.000000000000000E+00
 0.000000000000000E+00 0.000000000000000E+00 0.000000000000000E+00
 0.000000000000000E+00 0.000000000000000E+00 0.000000000000000E+00
 0.000000000000000E+00 0.000000000000000E+00 0.000000000000000E+00
 0.000000000000000E+00 0.000000000000000E+00 0.000000000000000E+00
 0.000000000000000E+00 0.000000000000000E+00 0.000000000000000E+00
 0.000000000000000E+00 0.000000000000000E+00 0.000000000000000E+00
 0.000000000000000E+00 0.000000000000000E+00 0.000000000000000E+00
 0.000000000000000E+00 0.000000000000000E+00 0.000000000000000E+00
 0.000000000000000E+00 0.000000000000000E+00 0.000000000000000E+00
 0.643648479122728E+02 0.459081816522131E+01
 0.232827752429939E+02 0.369958142449157E+01
 0.410820726692784E+02 0.254166650730858E+01
 0.246661588808618E+03 0.391939802093241E+02
 0.850206569238896E+01 0.738819909225386E+00
 0.000000000000000E+00 0.000000000000000E+00
 0.000000000000000E+00 0.000000000000000E+00
 0.000000000000000E+00 0.000000000000000E+00
 0.000000000000000E+00 0.000000000000000E+00
 0.000000000000000E+00 0.000000000000000E+00
 0.643963828479608E+02 0.459201323313838E+01
 0.233767185387622E+02 0.369797470092890E+01
 0.315349356881891E-01 0.114318724994067E+00
 0.000000000000000E+00 0.000000000000000E+00
 0.000000000000000E+00 0.000000000000000E+00
 0.000000000000000E+00 0.000000000000000E+00
 0.000000000000000E+00 0.000000000000000E+00
-0.140511411810062E+02 0.699692414100807E+02
 0.000000000000000E+00 0.000000000000000E+00
 0.210767117715092E+02 0.104953862115121E+03
 0.643963828479608E+02 0.459201323313838E+01
 0.410820726692784E+02 0.254166650730858E+01
 0.233764904580819E+02 0.371191448733048E+01
 0.233769466194423E+02 0.371196325880656E+01
 0.000000000000000E+00 0.000000000000000E+00
 0.000000000000000E+00 0.000000000000000E+00
 0.000000000000000E+00 0.000000000000000E+00
 0.000000000000000E+00 0.000000000000000E+00
 0.000000000000000E+00 0.000000000000000E+00
 0.000000000000000E+00 0.000000000000000E+00
 0.000000000000000E+00 0.000000000000000E+00
 0.000000000000000E+00 0.000000000000000E+00
 0.000000000000000E+00 0.000000000000000E+00
 0.000000000000000E+00 0.000000000000000E+00
 0.000000000000000E+00 0.000000000000000E+00
 0.000000000000000E+00 0.000000000000000E+00
 0.000000000000000E+00 0.000000000000000E+00
 0.000000000000000E+00 0.000000000000000E+00
 0.000000000000000E+00 0.000000000000000E+00
 0.000000000000000E+00 0.000000000000000E+00
 0.000000000000000E+00 0.000000000000000E+00
 0.000000000000000E+00 0.000000000000000E+00
 0.000000000000000E+00 0.000000000000000E+00
 0.000000000000000E+00 0.000000000000000E+00
 0.000000000000000E+00 0.000000000000000E+00
 0.000000000000000E+00 0.000000000000000E+00
 0.000000000000000E+00 0.000000000000000E+00
 0.000000000000000E+00 0.000000000000000E+00
 0.000000000000000E+00 0.000000000000000E+00
 0.000000000000000E+00 0.000000000000000E+00
 0.000000000000000E+00 0.000000000000000E+00
 0.000000000000000E+00 0.000000000000000E+00
 0.000000000000000E+00 0.000000000000000E+00
 0.000000000000000E+00 0.000000000000000E+00
 0.000000000000000E+00 0.000000000000000E+00
 0.000000000000000E+00 0.000000000000000E+00
 0.000000000000000E+00 0.000000000000000E+00
 0.000000000000000E+00 0.000000000000000E+00
 0.000000000000000E+00 0.000000000000000E+00
 0.000000000000000E+00 0.000000000000000E+00
 0.258947270870664E-02 0.258947326940323E+02 0.670537181295395E-01
 0.000000000000000E+00 0.000000000000000E+00 0.000000000000000E+00
 0.128423408141559E+02 0.131412986998897E+06 0.179464903157118E+07
 0.000000000000000E+00 0.000000000000000E+00 0.000000000000000E+00
 0.000000000000000E+00 0.000000000000000E+00 0.000000000000000E+00
 0.281328167304424E+02 0.279381844961193E+06 0.781232804829960E+07
 0.000000000000000E+00 0.000000000000000E+00 0.000000000000000E+00
 0.000000000000000E+00 0.000000000000000E+00 0.000000000000000E+00
 0.000000000000000E+00 0.000000000000000E+00 0.000000000000000E+00
 0.000000000000000E+00 0.000000000000000E+00 0.000000000000000E+00
 0.000000000000000E+00 0.000000000000000E+00 0.000000000000000E+00
 0.000000000000000E+00 0.000000000000000E+00 0.000000000000000E+00
 0.000000000000000E+00 0.000000000000000E+00 0.000000000000000E+00
 0.000000000000000E+00 0.000000000000000E+00 0.000000000000000E+00
 0.000000000000000E+00 0.000000000000000E+00 0.000000000000000E+00
 0.000000000000000E+00 0.000000000000000E+00 0.000000000000000E+00
 0.000000000000000E+00 0.000000000000000E+00 0.000000000000000E+00
 0.000000000000000E+00 0.000000000000000E+00 0.000000000000000E+00
 0.000000000000000E+00 0.000000000000000E+00 0.000000000000000E+00
 0.000000000000000E+00 0.000000000000000E+00 0.000000000000000E+00
 0.000000000000000E+00 0.000000000000000E+00 0.000000000000000E+00
 0.000000000000000E+00 0.000000000000000E+00 0.000000000000000E+00
 0.000000000000000E+00 0.000000000000000E+00 0.000000000000000E+00
 0.000000000000000E+00 0.000000000000000E+00 0.000000000000000E+00
 0.000000000000000E+00 0.000000000000000E+00 0.000000000000000E+00
 0.000000000000000E+00 0.000000000000000E+00 0.000000000000000E+00
 0.000000000000000E+00 0.000000000000000E+00 0.000000000000000E+00
 0.000000000000000E+00 0.000000000000000E+00 0.000000000000000E+00
 0.000000000000000E+00 0.000000000000000E+00 0.000000000000000E+00
 0.000000000000000E+00 0.000000000000000E+00 0.000000000000000E+00
 0.000000000000000E+00 0.000000000000000E+00 0.000000000000000E+00
 0.000000000000000E+00 0.000000000000000E+00 0.000000000000000E+00
 0.000000000000000E+00 0.000000000000000E+00 0.000000000000000E+00
 0.000000000000000E+00 0.000000000000000E+00 0.000000000000000E+00
 0.000000000000000E+00 0.000000000000000E+00 0.000000000000000E+00
 0.000000000000000E+00 0.000000000000000E+00 0.000000000000000E+00
 0.000000000000000E+00 0.000000000000000E+00 0.000000000000000E+00
 0.000000000000000E+00 0.000000000000000E+00 0.000000000000000E+00
 0.000000000000000E+00 0.000000000000000E+00 0.000000000000000E+00
 0.000000000000000E+00 0.000000000000000E+00 0.000000000000000E+00
 0.000000000000000E+00 0.000000000000000E+00 0.000000000000000E+00
 0.000000000000000E+00 0.000000000000000E+00 0.000000000000000E+00
 0.000000000000000E+00 0.000000000000000E+00 0.000000000000000E+00
 0.000000000000000E+00 0.000000000000000E+00 0.000000000000000E+00
 0.000000000000000E+00 0.000000000000000E+00 0.000000000000000E+00
 0.000000000000000E+00 0.000000000000000E+00 0.000000000000000E+00
 0.000000000000000E+00 0.000000000000000E+00 0.000000000000000E+00
 0.000000000000000E+00 0.000000000000000E+00 0.000000000000000E+00
 0.000000000000000E+00 0.000000000000000E+00 0.000000000000000E+00
 0.000000000000000E+00 0.000000000000000E+00 0.000000000000000E+00
 0.000000000000000E+00 0.000000000000000E+00 0.000000000000000E+00
 0.000000000000000E+00 0.000000000000000E+00 0.000000000000000E+00
 0.000000000000000E+00 0.000000000000000E+00 0.000000000000000E+00
 0.000000000000000E+00 0.000000000000000E+00 0.000000000000000E+00
 0.000000000000000E+00 0.000000000000000E+00 0.000000000000000E+00
 0.000000000000000E+00 0.000000000000000E+00 0.000000000000000E+00
 0.000000000000000E+00 0.000000000000000E+00 0.000000000000000E+00
 0.000000000000000E+00 0.000000000000000E+00 0.000000000000000E+00
 0.000000000000000E+00 0.000000000000000E+00 0.000000000000000E+00
 0.000000000000000E+00 0.000000000000000E+00 0.000000000000000E+00
 0.000000000000000E+00 0.000000000000000E+00 0.000000000000000E+00
 0.000000000000000E+00 0.000000000000000E+00 0.000000000000000E+00
 0.000000000000000E+00 0.000000000000000E+00 0.000000000000000E+00
 0.000000000000000E+00 0.000000000000000E+00 0.000000000000000E+00
 0.000000000000000E+00 0.000000000000000E+00 0.000000000000000E+00
 0.000000000000000E+00 0.000000000000000E+00 0.000000000000000E+00
 0.000000000000000E+00 0.000000000000000E+00 0.000000000000000E+00
 0.000000000000000E+00 0.000000000000000E+00 0.000000000000000E+00
 0.000000000000000E+00 0.000000000000000E+00 0.000000000000000E+00
 0.000000000000000E+00 0.000000000000000E+00 0.000000000000000E+00
 0.000000000000000E+00 0.000000000000000E+00 0.000000000000000E+00
 0.000000000000000E+00 0.000000000000000E+00 0.000000000000000E+00
 0.000000000000000E+00 0.000000000000000E+00 0.000000000000000E+00
 0.000000000000000E+00 0.000000000000000E+00 0.000000000000000E+00
 0.000000000000000E+00 0.000000000000000E+00 0.000000000000000E+00
 0.000000000000000E+00 0.000000000000000E+00 0.000000000000000E+00
 0.000000000000000E+00 0.000000000000000E+00 0.000000000000000E+00
 0.000000000000000E+00 0.000000000000000E+00 0.000000000000000E+00
 0.000000000000000E+00 0.000000000000000E+00 0.000000000000000E+00
 0.000000000000000E+00 0.000000000000000E+00 0.000000000000000E+00
 0.258947326940323E-02 0.266994403685758E-09
 0.000000000000000E+00 0.000000000000000E+00
 0.131412986998897E+02 0.260214750492646E+01
 0.000000000000000E+00 0.000000000000000E+00
 0.000000000000000E+00 0.000000000000000E+00
 0.279381844961193E+02 0.831054685780502E+00
 0.000000000000000E+00 0.000000000000000E+00
 0.000000000000000E+00 0.000000000000000E+00
 0.000000000000000E+00 0.000000000000000E+00
 0.000000000000000E+00 0.000000000000000E+00
 0.000000000000000E+00 0.000000000000000E+00
 0.000000000000000E+00 0.000000000000000E+00
 0.000000000000000E+00 0.000000000000000E+00
 0.000000000000000E+00 0.000000000000000E+00
 0.000000000000000E+00 0.000000000000000E+00
 0.000000000000000E+00 0.000000000000000E+00
 0.000000000000000E+00 0.000000000000000E+00
 0.000000000000000E+00 0.000000000000000E+00
 0.000000000000000E+00 0.000000000000000E+00
 0.000000000000000E+00 0.000000000000000E+00
 0.000000000000000E+00 0.000000000000000E+00
 0.000000000000000E+00 0.000000000000000E+00
 0.000000000000000E+00 0.000000000000000E+00
 0.000000000000000E+00 0.000000000000000E+00
 0.000000000000000E+00 0.000000000000000E+00
 0.000000000000000E+00 0.000000000000000E+00
 0.000000000000000E+00 0.000000000000000E+00
 0.000000000000000E+00 0.000000000000000E+00
 0.000000000000000E+00 0.000000000000000E+00
 0.000000000000000E+00 0.000000000000000E+00
 0.000000000000000E+00 0.000000000000000E+00
 0.000000000000000E+00 0.000000000000000E+00
 0.000000000000000E+00 0.000000000000000E+00
 0.000000000000000E+00 0.000000000000000E+00
 0.000000000000000E+00 0.000000000000000E+00
 0.000000000000000E+00 0.000000000000000E+00
 0.000000000000000E+00 0.000000000000000E+00
 0.000000000000000E+00 0.000000000000000E+00
 0.000000000000000E+00 0.000000000000000E+00
 0.000000000000000E+00 0.000000000000000E+00
 0.000000000000000E+00 0.000000000000000E+00
 0.000000000000000E+00 0.000000000000000E+00
 0.000000000000000E+00 0.000000000000000E+00
 0.000000000000000E+00 0.000000000000000E+00
 0.000000000000000E+00 0.000000000000000E+00
 0.000000000000000E+00 0.000000000000000E+00
 0.000000000000000E+00 0.000000000000000E+00
 0.000000000000000E+00 0.000000000000000E+00
 0.000000000000000E+00 0.000000000000000E+00
 0.000000000000000E+00 0.000000000000000E+00
 0.000000000000000E+00 0.000000000000000E+00
 0.000000000000000E+00 0.000000000000000E+00
 0.000000000000000E+00 0.000000000000000E+00
 0.000000000000000E+00 0.000000000000000E+00
 0.000000000000000E+00 0.000000000000000E+00
 0.000000000000000E+00 0.000000000000000E+00
 0.000000000000000E+00 0.000000000000000E+00
 0.000000000000000E+00 0.000000000000000E+00
 0.000000000000000E+00 0.000000000000000E+00
 0.000000000000000E+00 0.000000000000000E+00
 0.000000000000000E+00 0.000000000000000E+00
 0.000000000000000E+00 0.000000000000000E+00
 0.000000000000000E+00 0.000000000000000E+00
 0.000000000000000E+00 0.000000000000000E+00
 0.000000000000000E+00 0.000000000000000E+00
 0.000000000000000E+00 0.000000000000000E+00
 0.000000000000000E+00 0.000000000000000E+00
 0.000000000000000E+00 0.000000000000000E+00
 0.000000000000000E+00 0.000000000000000E+00
 0.000000000000000E+00 0.000000000000000E+00
 0.000000000000000E+00 0.000000000000000E+00
 0.000000000000000E+00 0.000000000000000E+00
 0.000000000000000E+00 0.000000000000000E+00
 0.000000000000000E+00 0.000000000000000E+00
 0.000000000000000E+00 0.000000000000000E+00
 0.000000000000000E+00 0.000000000000000E+00
 0.000000000000000E+00 0.000000000000000E+00
 0.000000000000000E+00 0.000000000000000E+00
 0.000000000000000E+00 0.000000000000000E+00
 0.000000000000000E+00 0.000000000000000E+00
 0.000000000000000E+00 0.000000000000000E+00 0.000000000000000E+00
 0.000000000000000E+00 0.000000000000000E+00 0.000000000000000E+00
 0.000000000000000E+00 0.000000000000000E+00 0.000000000000000E+00
 0.000000000000000E+00 0.000000000000000E+00 0.000000000000000E+00
 0.000000000000000E+00 0.000000000000000E+00 0.000000000000000E+00
 0.000000000000000E+00 0.000000000000000E+00 0.000000000000000E+00
 0.000000000000000E+00 0.000000000000000E+00 0.000000000000000E+00
 0.000000000000000E+00 0.000000000000000E+00 0.000000000000000E+00
 0.000000000000000E+00 0.000000000000000E+00 0.000000000000000E+00
 0.117627955160026E+02-0.132536088534221E+06 0.127891276824027E+09
-0.696810186286634E+02-0.112367234397656E+05 0.529572620063564E+08
 0.997836955169860E+02-0.211335778494297E+05 0.517841787471839E+08
-0.696810186237725E+02-0.112367234391010E+05 0.529572620063817E+08
-0.880716534719592E+02-0.139200969946002E+06 0.111309713793558E+09
 0.285157159431844E+02 0.813915331434542E+04 0.550242010911379E+08
 0.997836955184458E+02-0.211335778494207E+05 0.517841787471804E+08
 0.285157159430052E+02 0.813915331459161E+04 0.550242010911863E+08
-0.150295917368736E+02-0.149797176949962E+06 0.123669123689665E+09
 0.000000000000000E+00 0.000000000000000E+00 0.000000000000000E+00
 0.000000000000000E+00 0.000000000000000E+00 0.000000000000000E+00
 0.000000000000000E+00 0.000000000000000E+00 0.000000000000000E+00
 0.000000000000000E+00 0.000000000000000E+00 0.000000000000000E+00
 0.000000000000000E+00 0.000000000000000E+00 0.000000000000000E+00
 0.000000000000000E+00 0.000000000000000E+00 0.000000000000000E+00
 0.000000000000000E+00 0.000000000000000E+00 0.000000000000000E+00
 0.000000000000000E+00 0.000000000000000E+00 0.000000000000000E+00
 0.000000000000000E+00 0.000000000000000E+00 0.000000000000000E+00
 0.000000000000000E+00 0.000000000000000E+00 0.000000000000000E+00
 0.000000000000000E+00 0.000000000000000E+00 0.000000000000000E+00
 0.000000000000000E+00 0.000000000000000E+00 0.000000000000000E+00
 0.000000000000000E+00 0.000000000000000E+00 0.000000000000000E+00
 0.000000000000000E+00 0.000000000000000E+00 0.000000000000000E+00
 0.000000000000000E+00 0.000000000000000E+00 0.000000000000000E+00
 0.000000000000000E+00 0.000000000000000E+00 0.000000000000000E+00
 0.000000000000000E+00 0.000000000000000E+00 0.000000000000000E+00
 0.000000000000000E+00 0.000000000000000E+00 0.000000000000000E+00
 0.000000000000000E+00 0.000000000000000E+00 0.000000000000000E+00
 0.000000000000000E+00 0.000000000000000E+00 0.000000000000000E+00
 0.000000000000000E+00 0.000000000000000E+00 0.000000000000000E+00
 0.000000000000000E+00 0.000000000000000E+00 0.000000000000000E+00
 0.000000000000000E+00 0.000000000000000E+00 0.000000000000000E+00
 0.000000000000000E+00 0.000000000000000E+00 0.000000000000000E+00
 0.000000000000000E+00 0.000000000000000E+00 0.000000000000000E+00
 0.000000000000000E+00 0.000000000000000E+00 0.000000000000000E+00
 0.000000000000000E+00 0.000000000000000E+00 0.000000000000000E+00
 0.000000000000000E+00 0.000000000000000E+00 0.000000000000000E+00
 0.000000000000000E+00 0.000000000000000E+00 0.000000000000000E+00
 0.000000000000000E+00 0.000000000000000E+00 0.000000000000000E+00
 0.000000000000000E+00 0.000000000000000E+00 0.000000000000000E+00
 0.000000000000000E+00 0.000000000000000E+00 0.000000000000000E+00
 0.000000000000000E+00 0.000000000000000E+00
 0.000000000000000E+00 0.000000000000000E+00
 0.000000000000000E+00 0.000000000000000E+00
 0.000000000000000E+00 0.000000000000000E+00
 0.000000000000000E+00 0.000000000000000E+00
 0.000000000000000E+00 0.000000000000000E+00
 0.000000000000000E+00 0.000000000000000E+00
 0.000000000000000E+00 0.000000000000000E+00
 0.000000000000000E+00 0.000000000000000E+00
-0.132536088534221E+02 0.112309703653617E+03
-0.112367234397656E+01 0.727630645389474E+02
-0.211335778494297E+01 0.719301855523202E+02
-0.112367234391010E+01 0.727630645389658E+02
-0.139200969946002E+02 0.104581079928526E+03
 0.813915331434542E+00 0.741738340046343E+02
-0.211335778494207E+01 0.719301855523178E+02
 0.813915331459161E+00 0.741738340046667E+02
-0.149797176949962E+02 0.110193105168812E+03
 0.000000000000000E+00 0.000000000000000E+00
 0.000000000000000E+00 0.000000000000000E+00
 0.000000000000000E+00 0.000000000000000E+00
 0.000000000000000E+00 0.000000000000000E+00
 0.000000000000000E+00 0.000000000000000E+00
 0.000000000000000E+00 0.000000000000000E+00
 0.000000000000000E+00 0.000000000000000E+00
 0.000000000000000E+00 0.000000000000000E+00
 0.000000000000000E+00 0.000000000000000E+00
 0.000000000000000E+00 0.000000000000000E+00
 0.000000000000000E+00 0.000000000000000E+00
 0.000000000000000E+00 0.000000000000000E+00
 0.000000000000000E+00 0.000000000000000E+00
 0.000000000000000E+00 0.000000000000000E+00
 0.000000000000000E+00 0.000000000000000E+00
 0.000000000000000E+00 0.000000000000000E+00
 0.000000000000000E+00 0.000000000000000E+00
 0.000000000000000E+00 0.000000000000000E+00
 0.000000000000000E+00 0.000000000000000E+00
 0.000000000000000E+00 0.000000000000000E+00
 0.000000000000000E+00 0.000000000000000E+00
 0.000000000000000E+00 0.000000000000000E+00
 0.000000000000000E+00 0.000000000000000E+00
 0.000000000000000E+00 0.000000000000000E+00
 0.000000000000000E+00 0.000000000000000E+00
 0.000000000000000E+00 0.000000000000000E+00
 0.000000000000000E+00 0.000000000000000E+00
 0.000000000000000E+00 0.000000000000000E+00
 0.000000000000000E+00 0.000000000000000E+00
 0.000000000000000E+00 0.000000000000000E+00
 0.000000000000000E+00 0.000000000000000E+00
 0.000000000000000E+00 0.000000000000000E+00

 !XOLD, YOLD, ZOLD
 0.190555841383791E+02-0.731661233869443E+02-0.127341711260818E+02
 0.163705445648740E+02-0.712769322602817E+02-0.146890522919887E+02
 0.152801049660147E+02-0.693023363854986E+02-0.116086009269241E+02
 0.134299561492924E+02-0.661920649244132E+02-0.128227186287336E+02
 0.159228130594984E+02-0.661791166636316E+02-0.157141796381571E+02
 0.179663773964340E+02-0.631317848110727E+02-0.146401566489785E+02
 0.208855415809695E+02-0.653624545207860E+02-0.135969600663678E+02
 0.221451817494655E+02-0.626572557491754E+02-0.112097166241795E+02
 0.194402628989332E+02-0.631263289740765E+02-0.855238406669861E+01
 0.177398074769541E+02-0.600375317153632E+02-0.100272423147603E+02
 0.174419812996309E+02-0.588099622135978E+02-0.643328673820832E+01
 0.211887252946995E+02-0.592992521046920E+02-0.586352815864335E+01
 0.212324179470873E+02-0.614816983436680E+02-0.272733869241316E+01
 0.247740715384199E+02-0.601156981401607E+02-0.226570541453305E+01
 0.258812483097382E+02-0.611849434383425E+02-0.576853656831361E+01
 0.278295554284560E+02-0.579075266840781E+02-0.602565869683029E+01
 0.255558540384849E+02-0.563260638682290E+02-0.865989071972375E+01
 0.249335813409853E+02-0.526461881934580E+02-0.784064368239286E+01
 0.230528511692232E+02-0.531406773809792E+02-0.454987561679477E+01
 0.204275548156710E+02-0.504302392791037E+02-0.395511822766254E+01
 0.182639738228490E+02-0.515810225430078E+02-0.688086722008642E+01
 0.178013105389841E+02-0.550000017144087E+02-0.525798548955579E+01
 0.161575936926721E+02-0.542105310532059E+02-0.191730935988435E+01
 0.156137594877217E+02-0.504992495749799E+02-0.264956556228087E+01
 0.141950046976737E+02-0.497411012145293E+02 0.815991666977076E+00
 0.168368412954860E+02-0.469839873562814E+02 0.835267579019513E+00
 0.196334840402442E+02-0.492534970943986E+02 0.211999825349236E+01
 0.199257616181042E+02-0.468153123072627E+02 0.505055873948516E+01
 0.163804095312000E+02-0.475261161081242E+02 0.629314537132865E+01
 0.154066783901745E+02-0.459111715841238E+02 0.961614926079346E+01
 0.168848170876692E+02-0.423908493978596E+02 0.974392523115924E+01
 0.156954534462044E+02-0.387854100613498E+02 0.101981116676691E+02
 0.152669111222596E+02-0.387499602921711E+02 0.641241123194196E+01
 0.129459242435997E+02-0.417406435346102E+02 0.691214481589587E+01
 0.143078651846049E+02-0.436456188637775E+02 0.389460096905867E+01
 0.118657186932543E+02-0.423736531225054E+02 0.125162600365956E+01
 0.138974686213915E+02-0.391609514874723E+02 0.893266639524490E+00
 0.113753374336947E+02-0.372367485760833E+02 0.302110930929345E+01
 0.972726232822877E+01-0.358020771987501E+02-0.115639243874992E+00
 0.683523352379741E+01-0.382334001787133E+02 0.475569655279011E+00
 0.581421746731169E+01-0.362898611126221E+02 0.360260836809377E+01
 0.611869422797067E+01-0.392839868976894E+02 0.595134689912600E+01
 0.948327022753112E+01-0.377309498098121E+02 0.689230446779557E+01
 0.739963292494571E+01-0.348841446302690E+02 0.835813831285128E+01
 0.386132520624990E+01-0.363280045500647E+02 0.848246055472826E+01
 0.478155513746875E+01-0.388736415750462E+02 0.111837517295747E+02
 0.845194659177342E+01-0.383266051643152E+02 0.121131573124618E+02

 !VX, VY, VZ
 0.792567356720186E-01 0.433500396585298E-01-0.573683726032538E-01
 0.596628298792642E-02-0.209724052682288E-01-0.188816081043203E-01
-0.692879937272942E-01-0.520173848283681E-01-0.256147531192792E-01
 0.732135931437957E-02-0.239333949583341E-01-0.704597007948988E-01
 0.787321541131685E-01-0.263413416100716E-01-0.891435866689578E-02
-0.396987895703009E-02 0.276787831482890E-01-0.477613460468002E-02
 0.183388376159013E-01 0.581472893196476E-01-0.206013575040571E-02
-0.144310236152236E-01 0.847548372871264E-01-0.149372705824176E-01
 0.449382698648229E-01-0.904601874960765E-01 0.144969139601958E-01
 0.276032936868336E-01-0.808024853475434E-01 0.546589157787171E-01
-0.126892559826430E-02-0.744758449296748E-01 0.501003753770706E-01
 0.751347713440709E-02 0.414311835222521E-01 0.917622336290982E-01
-0.422524560165501E-01 0.119678561538694E-01 0.719696547635383E-01
-0.258237045363291E-01 0.381503439963935E-01-0.131943665407099E+00
 0.180919520076285E-01-0.275769675058054E-01-0.980079257472837E-01
-0.115265378934519E+00 0.601363450947772E-01 0.101625090870470E-01
-0.362861321702208E-01 0.500226609012666E-01-0.640110704460747E-01
 0.926975953289213E-02 0.616472306097892E-01-0.816303015572179E-01
 0.509887876643736E-01-0.160172173843772E-01-0.694257965339764E-01
 0.747175712422185E-01 0.142484655925127E-01-0.102459065721991E+00
-0.504573146527480E-01 0.387001859716139E-02-0.589081131718917E-02
 0.129553176995142E-01 0.395350250873434E-02 0.123244258948025E-01
-0.402876303427961E-01-0.281155640629106E-01-0.631697265813049E-02
 0.208797179513247E-01-0.808405235068302E-02 0.498952080872179E-01
-0.954200750747777E-01-0.144620193106009E+00 0.321497656845844E-01
-0.140299607403728E+00-0.101104051188076E+00-0.367971111119664E-01
 0.172065533430237E-02 0.539894089362386E-01-0.720385875439338E-01
-0.319459748782531E-01-0.908215776939074E-01 0.517551444002431E-01
-0.544229570917761E-01-0.717772544489103E-01-0.150912652667616E-02
 0.101846891103544E-01 0.203439581814847E-01-0.273527546262173E-01
-0.227662093995336E-01 0.367874446606019E-01-0.980806076504859E-01
 0.839924569941334E-01 0.571499858289997E-01 0.204976156207395E-01
 0.343851574025782E-01-0.548992825272706E-01 0.250479395924252E-01
 0.203115339879806E-01-0.419293613866452E-01 0.372823891303618E-01
-0.600984006989067E-01-0.693467868797661E-01 0.182257189303970E-01
 0.721745495930131E-01 0.103859285513887E+00-0.208984716465431E-01
 0.789026948704498E-01 0.100427145773654E+00-0.134451991518269E-01
 0.726705179971783E-01 0.776939481792855E-02 0.631215260287653E-01
 0.192712592535631E-01-0.704568642330524E-01 0.554356981263714E-01
-0.730860526601629E-01 0.278251281189634E-01 0.794896294197511E-02
 0.721255957688783E-01-0.119031757590259E-02 0.734259077188394E-01
 0.756833877797472E-01-0.296773819692273E-01 0.366540849827149E-01
 0.403041234197615E-01 0.742881322299519E-01-0.826998025399699E-02
-0.428578990097069E-01-0.119755290877251E-01 0.411453311996250E-01
-0.847609072107700E-02-0.107697198584221E+00-0.937807579436591E-01
-0.802353195662813E-02 0.185982893411935E-01 0.250543351944303E-01
-0.114269773191090E-01 0.266976295766279E-02 0.478508556547568E-01

 !X, Y, Z
 0.120483256301362E-01 0.734361649864468E-02-0.819645377361056E-02
 0.118138891186703E-02-0.292983528076718E-02-0.313514083728528E-02
-0.992202978144441E-02-0.828684582714345E-02-0.365642941313737E-02
 0.112481262346265E-02-0.453636717064398E-02-0.108054003812263E-01
 0.118455639844761E-01-0.334135292702342E-02-0.152218955395966E-02
-0.369896908807732E-03 0.465635557380750E-02-0.107088048633663E-02
 0.329876499901616E-02 0.947904800200661E-02-0.104207637925313E-02
-0.309806245379818E-02 0.136717926334029E-01-0.243059006778346E-02
 0.724547299278555E-02-0.136564413554083E-01 0.310775870585545E-02
 0.466485104961478E-02-0.129274456878292E-01 0.761919207027795E-02
-0.291650332567173E-03-0.116513996466665E-01 0.676885594816490E-02
 0.902515396965953E-03 0.640151176408921E-02 0.140850155033121E-01
-0.548241493823554E-02 0.172171123928422E-02 0.109057347673258E-01
-0.326963304776484E-02 0.644604470480203E-02-0.211959689985224E-01
 0.117159635495767E-02-0.487668006668684E-02-0.163113797753383E-01
-0.187796013864094E-01 0.832420564580616E-02 0.258399032553225E-02
-0.531842258012460E-02 0.695234762726216E-02-0.979460263513232E-02
 0.178901943072063E-02 0.874801578341788E-02-0.124990317032418E-01
 0.814899372088007E-02-0.181698572400535E-02-0.104754813256758E-01
 0.104371020014717E-01 0.139692291391924E-02-0.150528038054407E-01
-0.783801086890179E-02 0.112120605594157E-02-0.134075440298353E-02
 0.281579205258353E-02 0.112838561162931E-02 0.167386749694920E-02
-0.615719764127576E-02-0.470844087528377E-02-0.138030649238408E-02
 0.377795466140896E-02-0.141802489153520E-02 0.805334095408750E-02
-0.151455072183477E-01-0.214152205750864E-01 0.456992689522051E-02